# vtk DataFile Version 2.0
interior-filter-solid
ASCII
DATASET POLYDATA
POINTS 7722 float
0.0699049 0.0330799 -0.0109811 0.0699049 0.0330799 -0.0108209
0.0702231 0.0330799 -0.0108209 0.0702231 0.0330799 -0.0109938
0.0705414 0.0330799 -0.0108209 0.0705414 0.0330799 -0.011
0.0708596 0.0330799 -0.0108209 0.0708596 0.0330799 -0.0109953
0.0711779 0.0330799 -0.0108209 0.0711779 0.0330799 -0.0109819
0.0679953 0.0330799 -0.0107012 0.0679953 0.0330799 -0.0105026
0.0683136 0.0330799 -0.0105026 0.0683136 0.0330799 -0.010772
0.0686318 0.0330799 -0.0105026 0.0686318 0.0330799 -0.0108329
0.0689501 0.0330799 -0.0105026 0.0689501 0.0330799 -0.0108841
0.0692683 0.0330799 -0.0105026 0.0692683 0.0330799 -0.0109262
0.0695866 0.0330799 -0.0105026 0.0695866 0.0330799 -0.010959
0.0699049 0.0330799 -0.0105026 0.0702231 0.0330799 -0.0105026
0.0705414 0.0330799 -0.0105026 0.0708596 0.0330799 -0.0105026
0.0711779 0.0330799 -0.0105026 0.0714962 0.0330799 -0.0105026
0.0714962 0.0330799 -0.0109585 0.0718144 0.0330799 -0.0105026
0.0718144 0.0330799 -0.0109261 0.0721327 0.0330799 -0.0105026
0.0721327 0.0330799 -0.0108843 0.072451 0.0330799 -0.0105026
0.072451 0.0330799 -0.0108329 0.0727692 0.0330799 -0.0105026
0.0727692 0.0330799 -0.0107719 0.0730875 0.0330799 -0.0105026
0.0730875 0.0330799 -0.0107015 0.0670405 0.0330799 -0.010428
0.0670405 0.0330799 -0.0101843 0.0673588 0.0330799 -0.0101843
0.0673588 0.0330799 -0.0105295 0.067677 0.0330799 -0.0101843
0.067677 0.0330799 -0.0106205 0.0679953 0.0330799 -0.0101843
0.0683136 0.0330799 -0.0101843 0.0686318 0.0330799 -0.0101843
0.0689501 0.0330799 -0.0101843 0.0692683 0.0330799 -0.0101843
0.0695866 0.0330799 -0.0101843 0.0699049 0.0330799 -0.0101843
0.0702231 0.0330799 -0.0101843 0.0705414 0.0330799 -0.0101843
0.0708596 0.0330799 -0.0101843 0.0711779 0.0330799 -0.0101843
0.0714962 0.0330799 -0.0101843 0.0718144 0.0330799 -0.0101843
0.0721327 0.0330799 -0.0101843 0.072451 0.0330799 -0.0101843
0.0727692 0.0330799 -0.0101843 0.0730875 0.0330799 -0.0101843
0.0734057 0.0330799 -0.0101843 0.0734057 0.0330799 -0.0106206
0.073724 0.0330799 -0.0101843 0.073724 0.0330799 -0.0105296
0.0740423 0.0330799 -0.0101843 0.0740423 0.0330799 -0.0104283
0.0660857 0.0330799 -0.0100571 0.0660857 0.0330799 -0.00986609
0.066404 0.0330799 -0.00986609 0.066404 0.0330799 -0.0101921
0.0667223 0.0330799 -0.00986609 0.0667223 0.0330799 -0.0103156
0.0670405 0.0330799 -0.00986609 0.0673588 0.0330799 -0.00986609
0.067677 0.0330799 -0.00986609 0.0679953 0.0330799 -0.00986609
0.0683136 0.0330799 -0.00986609 0.0686318 0.0330799 -0.00986609
0.0689501 0.0330799 -0.00986609 0.0692683 0.0330799 -0.00986609
0.0695866 0.0330799 -0.00986609 0.0699049 0.0330799 -0.00986609
0.0702231 0.0330799 -0.00986609 0.0705414 0.0330799 -0.00986609
0.0708596 0.0330799 -0.00986609 0.0711779 0.0330799 -0.00986609
0.0714962 0.0330799 -0.00986609 0.0718144 0.0330799 -0.00986609
0.0721327 0.0330799 -0.00986609 0.072451 0.0330799 -0.00986609
0.0727692 0.0330799 -0.00986609 0.0730875 0.0330799 -0.00986609
0.0734057 0.0330799 -0.00986609 0.073724 0.0330799 -0.00986609
0.0740423 0.0330799 -0.00986609 0.0743605 0.0330799 -0.00986609
0.0743605 0.0330799 -0.0103156 0.0746788 0.0330799 -0.00986609
0.0746788 0.0330799 -0.0101922 0.074997 0.0330799 -0.00986609
0.074997 0.0330799 -0.0100574 0.0654492 0.0330799 -0.00975069
0.0654492 0.0330799 -0.00954783 0.0657675 0.0330799 -0.00954783
0.0657675 0.0330799 -0.00991001 0.0660857 0.0330799 -0.00954783
0.066404 0.0330799 -0.00954783 0.0667223 0.0330799 -0.00954783
0.0670405 0.0330799 -0.00954783 0.0673588 0.0330799 -0.00954783
0.067677 0.0330799 -0.00954783 0.0679953 0.0330799 -0.00954783
0.0683136 0.0330799 -0.00954783 0.0686318 0.0330799 -0.00954783
0.0689501 0.0330799 -0.00954783 0.0692683 0.0330799 -0.00954783
0.0695866 0.0330799 -0.00954783 0.0699049 0.0330799 -0.00954783
0.0702231 0.0330799 -0.00954783 0.0705414 0.0330799 -0.00954783
0.0708596 0.0330799 -0.00954783 0.0711779 0.0330799 -0.00954783
0.0714962 0.0330799 -0.00954783 0.0718144 0.0330799 -0.00954783
0.0721327 0.0330799 -0.00954783 0.072451 0.0330799 -0.00954783
0.0727692 0.0330799 -0.00954783 0.0730875 0.0330799 -0.00954783
0.0734057 0.0330799 -0.00954783 0.073724 0.0330799 -0.00954783
0.0740423 0.0330799 -0.00954783 0.0743605 0.0330799 -0.00954783
0.0746788 0.0330799 -0.00954783 0.074997 0.0330799 -0.00954783
0.0753153 0.0330799 -0.00954783 0.0753153 0.0330799 -0.00991012
0.0756336 0.0330799 -0.00954783 0.0756336 0.0330799 -0.0097503
0.0648127 0.0330799 -0.00939078 0.0648127 0.0330799 -0.00922957
0.065131 0.0330799 -0.00922957 0.065131 0.0330799 -0.00957754
0.0654492 0.0330799 -0.00922957 0.0657675 0.0330799 -0.00922957
0.0660857 0.0330799 -0.00922957 0.066404 0.0330799 -0.00922957
0.0667223 0.0330799 -0.00922957 0.0670405 0.0330799 -0.00922957
0.0673588 0.0330799 -0.00922957 0.067677 0.0330799 -0.00922957
0.0679953 0.0330799 -0.00922957 0.0683136 0.0330799 -0.00922957
0.0686318 0.0330799 -0.00922957 0.0689501 0.0330799 -0.00922957
0.0692683 0.0330799 -0.00922957 0.0695866 0.0330799 -0.00922957
0.0699049 0.0330799 -0.00922957 0.0702231 0.0330799 -0.00922957
0.0705414 0.0330799 -0.00922957 0.0708596 0.0330799 -0.00922957
0.0711779 0.0330799 -0.00922957 0.0714962 0.0330799 -0.00922957
0.0718144 0.0330799 -0.00922957 0.0721327 0.0330799 -0.00922957
0.072451 0.0330799 -0.00922957 0.0727692 0.0330799 -0.00922957
0.0730875 0.0330799 -0.00922957 0.0734057 0.0330799 -0.00922957
0.073724 0.0330799 -0.00922957 0.0740423 0.0330799 -0.00922957
0.0743605 0.0330799 -0.00922957 0.0746788 0.0330799 -0.00922957
0.074997 0.0330799 -0.00922957 0.0753153 0.0330799 -0.00922957
0.0756336 0.0330799 -0.00922957 0.0759518 0.0330799 -0.00922957
0.0759518 0.0330799 -0.00957779 0.0762701 0.0330799 -0.00922957
0.0762701 0.0330799 -0.00939022 0.0644944 0.0330799 -0.00918872
0.0644944 0.0330799 -0.0089113 0.0648127 0.0330799 -0.0089113
0.065131 0.0330799 -0.0089113 0.0654492 0.0330799 -0.0089113
0.0657675 0.0330799 -0.0089113 0.0660857 0.0330799 -0.0089113
0.066404 0.0330799 -0.0089113 0.0667223 0.0330799 -0.0089113
0.0670405 0.0330799 -0.0089113 0.0673588 0.0330799 -0.0089113
0.067677 0.0330799 -0.0089113 0.0679953 0.0330799 -0.0089113
0.0683136 0.0330799 -0.0089113 0.0686318 0.0330799 -0.0089113
0.0689501 0.0330799 -0.0089113 0.0692683 0.0330799 -0.0089113
0.0695866 0.0330799 -0.0089113 0.0699049 0.0330799 -0.0089113
0.0702231 0.0330799 -0.0089113 0.0705414 0.0330799 -0.0089113
0.0708596 0.0330799 -0.0089113 0.0711779 0.0330799 -0.0089113
0.0714962 0.0330799 -0.0089113 0.0718144 0.0330799 -0.0089113
0.0721327 0.0330799 -0.0089113 0.072451 0.0330799 -0.0089113
0.0727692 0.0330799 -0.0089113 0.0730875 0.0330799 -0.0089113
0.0734057 0.0330799 -0.0089113 0.073724 0.0330799 -0.0089113
0.0740423 0.0330799 -0.0089113 0.0743605 0.0330799 -0.0089113
0.0746788 0.0330799 -0.0089113 0.074997 0.0330799 -0.0089113
0.0753153 0.0330799 -0.0089113 0.0756336 0.0330799 -0.0089113
0.0759518 0.0330799 -0.0089113 0.0762701 0.0330799 -0.0089113
0.0765883 0.0330799 -0.0089113 0.0765883 0.0330799 -0.00918778
0.0641762 0.0330799 -0.00897119 0.0641762 0.0330799 -0.00859304
0.0644944 0.0330799 -0.00859304 0.0648127 0.0330799 -0.00859304
0.065131 0.0330799 -0.00859304 0.0654492 0.0330799 -0.00859304
0.0657675 0.0330799 -0.00859304 0.0660857 0.0330799 -0.00859304
0.066404 0.0330799 -0.00859304 0.0667223 0.0330799 -0.00859304
0.0670405 0.0330799 -0.00859304 0.0673588 0.0330799 -0.00859304
0.067677 0.0330799 -0.00859304 0.0679953 0.0330799 -0.00859304
0.0683136 0.0330799 -0.00859304 0.0686318 0.0330799 -0.00859304
0.0689501 0.0330799 -0.00859304 0.0692683 0.0330799 -0.00859304
0.0695866 0.0330799 -0.00859304 0.0699049 0.0330799 -0.00859304
0.0702231 0.0330799 -0.00859304 0.0705414 0.0330799 -0.00859304
0.0708596 0.0330799 -0.00859304 0.0711779 0.0330799 -0.00859304
0.0714962 0.0330799 -0.00859304 0.0718144 0.0330799 -0.00859304
0.0721327 0.0330799 -0.00859304 0.072451 0.0330799 -0.00859304
0.0727692 0.0330799 -0.00859304 0.0730875 0.0330799 -0.00859304
0.0734057 0.0330799 -0.00859304 0.073724 0.0330799 -0.00859304
0.0740423 0.0330799 -0.00859304 0.0743605 0.0330799 -0.00859304
0.0746788 0.0330799 -0.00859304 0.074997 0.0330799 -0.00859304
0.0753153 0.0330799 -0.00859304 0.0756336 0.0330799 -0.00859304
0.0759518 0.0330799 -0.00859304 0.0762701 0.0330799 -0.00859304
0.0765883 0.0330799 -0.00859304 0.0769066 0.0330799 -0.00859304
0.0769066 0.0330799 -0.00897101 0.0635397 0.0330799 -0.00848386
0.0635397 0.0330799 -0.00827478 0.0638579 0.0330799 -0.00827478
0.0638579 0.0330799 -0.00873682 0.0641762 0.0330799 -0.00827478
0.0644944 0.0330799 -0.00827478 0.0648127 0.0330799 -0.00827478
0.065131 0.0330799 -0.00827478 0.0654492 0.0330799 -0.00827478
0.0657675 0.0330799 -0.00827478 0.0660857 0.0330799 -0.00827478
0.066404 0.0330799 -0.00827478 0.0667223 0.0330799 -0.00827478
0.0670405 0.0330799 -0.00827478 0.0673588 0.0330799 -0.00827478
0.067677 0.0330799 -0.00827478 0.0679953 0.0330799 -0.00827478
0.0683136 0.0330799 -0.00827478 0.0686318 0.0330799 -0.00827478
0.0689501 0.0330799 -0.00827478 0.0692683 0.0330799 -0.00827478
0.0695866 0.0330799 -0.00827478 0.0699049 0.0330799 -0.00827478
0.0702231 0.0330799 -0.00827478 0.0705414 0.0330799 -0.00827478
0.0708596 0.0330799 -0.00827478 0.0711779 0.0330799 -0.00827478
0.0714962 0.0330799 -0.00827478 0.0718144 0.0330799 -0.00827478
0.0721327 0.0330799 -0.00827478 0.072451 0.0330799 -0.00827478
0.0727692 0.0330799 -0.00827478 0.0730875 0.0330799 -0.00827478
0.0734057 0.0330799 -0.00827478 0.073724 0.0330799 -0.00827478
0.0740423 0.0330799 -0.00827478 0.0743605 0.0330799 -0.00827478
0.0746788 0.0330799 -0.00827478 0.074997 0.0330799 -0.00827478
0.0753153 0.0330799 -0.00827478 0.0756336 0.0330799 -0.00827478
0.0759518 0.0330799 -0.00827478 0.0762701 0.0330799 -0.00827478
0.0765883 0.0330799 -0.00827478 0.0769066 0.0330799 -0.00827478
0.0772249 0.0330799 -0.00827478 0.0772249 0.0330799 -0.00873681
0.0775431 0.0330799 -0.00827478 0.0775431 0.0330799 -0.00848407
[...]
CELL_DATA 7624
FIELD attributes 0
