# vtk DataFile Version 2.0
interior-filter-solid
ASCII
DATASET POLYDATA
POINTS 910 float
0.067732 0.0350799 -0.0103477 0.0686684 0.0350799 -0.0105577 0.0686684 0.0350799 -0.00936471 0.067732 0.0350799
-0.00936471 0.0724143 0.0350799 -0.0105577 0.0733508 0.0350799 -0.0103477 0.0733508 0.0350799 -0.00936471
0.0724143 0.0350799 -0.00936471 0.0601937 0.0350799 -0.00280941 0.0611767 0.0350799 -0.00280941 0.0611767
0.0350799 -0.00187294 0.0599837 0.0350799 -0.00187294 0.0810991 0.0350799 -0.00187294 0.0799061 0.0350799
-0.00187294 0.0799061 0.0350799 -0.00280941 0.0808891 0.0350799 -0.00280941 0.0599837 0.0350799 0.00187294
0.0611767 0.0350799 0.00187294 0.0611767 0.0350799 0.00280941 0.0601937 0.0350799 0.00280941 0.0808891
0.0350799 0.00280941 0.0799061 0.0350799 0.00280941 0.0799061 0.0350799 0.00187294 0.0810991 0.0350799
0.00187294 0.067732 0.0350799 0.0103477 0.067732 0.0350799 0.00936471 0.0686684 0.0350799 0.00936471
0.0686684 0.0350799 0.0105577 0.0724143 0.0350799 0.0105577 0.0724143 0.0350799 0.00936471 0.0733508
0.0350799 0.00936471 0.0733508 0.0350799 0.0103477 0.0696049 0.0350799 -0.010681 0.0696049 0.0350799
-0.00936471 0.0714779 0.0350799 -0.010681 0.0714779 0.0350799 -0.00936471 0.0611767 0.0350799 -0.000936471
0.0598604 0.0350799 -0.000936471 0.0812223 0.0350799 -0.000936471 0.0799061 0.0350799 -0.000936471 0.0598604
0.0350799 0.000936471 0.0611767 0.0350799 0.000936471 0.0799061 0.0350799 0.000936471 0.0812223 0.0350799
0.000936471 0.0696049 0.0350799 0.00936471 0.0696049 0.0350799 0.010681 0.0714779 0.0350799 0.010681
0.0714779 0.0350799 0.00936471 0.0705414 0.0350799 -0.0107236 0.0705414 0.0350799 -0.00936471 0.0611767
0.0350799 -1.51788e-18 0.0598178 0.0350799 -1.51788e-18 0.081265 0.0350799 -1.51788e-18 0.0799061 0.0350799
-1.51788e-18 0.0705414 0.0350799 0.00936471 0.0705414 0.0350799 0.0107236 0.0667955 0.0350799 -0.00936471
0.067732 0.0350799 -0.00842824 0.0667955 0.0350799 -0.00842824 0.0742873 0.0350799 -0.00936471 0.0742873
0.0350799 -0.00842824 0.0733508 0.0350799 -0.00842824 0.0611767 0.0350799 -0.00374588 0.0621132 0.0350799
-0.00374588 0.0621132 0.0350799 -0.00280941 0.0789696 0.0350799 -0.00374588 0.0799061 0.0350799 -0.00374588
0.0789696 0.0350799 -0.00280941 0.0621132 0.0350799 0.00280941 0.0621132 0.0350799 0.00374588 0.0611767
0.0350799 0.00374588 0.0789696 0.0350799 0.00280941 0.0799061 0.0350799 0.00374588 0.0789696 0.0350799
0.00374588 0.0667955 0.0350799 0.00842824 0.067732 0.0350799 0.00842824 0.0667955 0.0350799 0.00936471
0.0733508 0.0350799 0.00842824 0.0742873 0.0350799 0.00842824 0.0742873 0.0350799 0.00936471 0.0639861
0.0350799 -0.00749177 0.0649226 0.0350799 -0.00749177 0.0649226 0.0350799 -0.00655529 0.0639861 0.0350799
-0.00655529 0.0761602 0.0350799 -0.00749177 0.0770967 0.0350799 -0.00749177 0.0770967 0.0350799 -0.00655529
0.0761602 0.0350799 -0.00655529 0.0630496 0.0350799 -0.00655529 0.0639861 0.0350799 -0.00561882 0.0630496
0.0350799 -0.00561882 0.0780332 0.0350799 -0.00655529 0.0780332 0.0350799 -0.00561882 0.0770967 0.0350799
-0.00561882 0.0630496 0.0350799 0.00561882 0.0639861 0.0350799 0.00561882 0.0639861 0.0350799 0.00655529
0.0630496 0.0350799 0.00655529 0.0770967 0.0350799 0.00561882 0.0780332 0.0350799 0.00561882 0.0780332
0.0350799 0.00655529 0.0770967 0.0350799 0.00655529 0.0649226 0.0350799 0.00655529 0.0649226 0.0350799
0.00749177 0.0639861 0.0350799 0.00749177 0.0761602 0.0350799 0.00655529 0.0770967 0.0350799 0.00749177
0.0761602 0.0350799 0.00749177 0.0752237 0.0350799 -0.00842824 0.0761602 0.0350799 -0.00842824 0.0752237
0.0350799 -0.00749177 0.0649226 0.0350799 -0.00842824 0.065859 0.0350799 -0.00842824 0.065859 0.0350799
-0.00749177 0.0780332 0.0350799 0.00468235 0.0789696 0.0350799 0.00468235 0.0789696 0.0350799 0.00561882
0.065859 0.0350799 0.00749177 0.065859 0.0350799 0.00842824 0.0649226 0.0350799 0.00842824 0.0752237
0.0350799 0.00749177 0.0761602 0.0350799 0.00842824 0.0752237 0.0350799 0.00842824 0.0789696 0.0350799
-0.00561882 0.0789696 0.0350799 -0.00468235 0.0780332 0.0350799 -0.00468235 0.0621132 0.0350799 0.00468235
0.0630496 0.0350799 0.00468235 0.0621132 0.0350799 0.00561882 0.0621132 0.0350799 -0.00561882 0.0630496
0.0350799 -0.00468235 0.0621132 0.0350799 -0.00468235 0.0686684 0.0350799 -0.00842824 0.0696049 0.0350799
-0.00842824 0.0705414 0.0350799 -0.00842824 0.0714779 0.0350799 -0.00842824 0.0724143 0.0350799 -0.00842824
0.0667955 0.0350799 -0.00749177 0.067732 0.0350799 -0.00749177 0.0686684 0.0350799 -0.00749177 0.0696049
0.0350799 -0.00749177 0.0705414 0.0350799 -0.00749177 0.0714779 0.0350799 -0.00749177 0.0724143 0.0350799
-0.00749177 0.0733508 0.0350799 -0.00749177 0.0742873 0.0350799 -0.00749177 0.065859 0.0350799 -0.00655529
0.0667955 0.0350799 -0.00655529 0.067732 0.0350799 -0.00655529 0.0686684 0.0350799 -0.00655529 0.0696049
0.0350799 -0.00655529 0.0705414 0.0350799 -0.00655529 0.0714779 0.0350799 -0.00655529 0.0724143 0.0350799
-0.00655529 0.0733508 0.0350799 -0.00655529 0.0742873 0.0350799 -0.00655529 0.0752237 0.0350799 -0.00655529
0.0649226 0.0350799 -0.00561882 0.065859 0.0350799 -0.00561882 0.0667955 0.0350799 -0.00561882 0.067732
0.0350799 -0.00561882 0.0686684 0.0350799 -0.00561882 0.0696049 0.0350799 -0.00561882 0.0705414 0.0350799
-0.00561882 0.0714779 0.0350799 -0.00561882 0.0724143 0.0350799 -0.00561882 0.0733508 0.0350799 -0.00561882
0.0742873 0.0350799 -0.00561882 0.0752237 0.0350799 -0.00561882 0.0761602 0.0350799 -0.00561882 0.0639861
0.0350799 -0.00468235 0.0649226 0.0350799 -0.00468235 0.065859 0.0350799 -0.00468235 0.0667955 0.0350799
-0.00468235 0.067732 0.0350799 -0.00468235 0.0686684 0.0350799 -0.00468235 0.0696049 0.0350799 -0.00468235
0.0705414 0.0350799 -0.00468235 0.0714779 0.0350799 -0.00468235 0.0724143 0.0350799 -0.00468235 0.0733508
0.0350799 -0.00468235 0.0742873 0.0350799 -0.00468235 0.0752237 0.0350799 -0.00468235 0.0761602 0.0350799
-0.00468235 0.0770967 0.0350799 -0.00468235 0.0630496 0.0350799 -0.00374588 0.0639861 0.0350799 -0.00374588
0.0649226 0.0350799 -0.00374588 0.065859 0.0350799 -0.00374588 0.0667955 0.0350799 -0.00374588 0.067732
0.0350799 -0.00374588 0.0686684 0.0350799 -0.00374588 0.0696049 0.0350799 -0.00374588 0.0705414 0.0350799
-0.00374588 0.0714779 0.0350799 -0.00374588 0.0724143 0.0350799 -0.00374588 0.0733508 0.0350799 -0.00374588
0.0742873 0.0350799 -0.00374588 0.0752237 0.0350799 -0.00374588 0.0761602 0.0350799 -0.00374588 0.0770967
0.0350799 -0.00374588 0.0780332 0.0350799 -0.00374588 0.0630496 0.0350799 -0.00280941 0.0639861 0.0350799
-0.00280941 0.0649226 0.0350799 -0.00280941 0.065859 0.0350799 -0.00280941 0.0667955 0.0350799 -0.00280941
0.067732 0.0350799 -0.00280941 0.0686684 0.0350799 -0.00280941 0.0696049 0.0350799 -0.00280941 0.0705414
0.0350799 -0.00280941 0.0714779 0.0350799 -0.00280941 0.0724143 0.0350799 -0.00280941 0.0733508 0.0350799
-0.00280941 0.0742873 0.0350799 -0.00280941 0.0752237 0.0350799 -0.00280941 0.0761602 0.0350799 -0.00280941
0.0770967 0.0350799 -0.00280941 0.0780332 0.0350799 -0.00280941 0.0621132 0.0350799 -0.00187294 0.0630496
0.0350799 -0.00187294 0.0639861 0.0350799 -0.00187294 0.0649226 0.0350799 -0.00187294 0.065859 0.0350799
-0.00187294 0.0667955 0.0350799 -0.00187294 0.067732 0.0350799 -0.00187294 0.0686684 0.0350799 -0.00187294
0.0696049 0.0350799 -0.00187294 0.0705414 0.0350799 -0.00187294 0.0714779 0.0350799 -0.00187294 0.0724143
0.0350799 -0.00187294 0.0733508 0.0350799 -0.00187294 0.0742873 0.0350799 -0.00187294 0.0752237 0.0350799
-0.00187294 0.0761602 0.0350799 -0.00187294 0.0770967 0.0350799 -0.00187294 0.0780332 0.0350799 -0.00187294
0.0789696 0.0350799 -0.00187294 0.0621132 0.0350799 -0.000936471 0.0630496 0.0350799 -0.000936471 0.0639861
0.0350799 -0.000936471 0.0649226 0.0350799 -0.000936471 0.065859 0.0350799 -0.000936471 0.0667955 0.0350799
-0.000936471 0.067732 0.0350799 -0.000936471 0.0686684 0.0350799 -0.000936471 0.0696049 0.0350799 -0.000936471
0.0705414 0.0350799 -0.000936471 0.0714779 0.0350799 -0.000936471 0.0724143 0.0350799 -0.000936471 0.0733508
0.0350799 -0.000936471 0.0742873 0.0350799 -0.000936471 0.0752237 0.0350799 -0.000936471 0.0761602 0.0350799
-0.000936471 0.0770967 0.0350799 -0.000936471 0.0780332 0.0350799 -0.000936471 0.0789696 0.0350799 -0.000936471
0.0621132 0.0350799 -1.51788e-18 0.0630496 0.0350799 -1.51788e-18 0.0639861 0.0350799 -1.51788e-18 0.0649226
0.0350799 -1.51788e-18 0.065859 0.0350799 -1.51788e-18 0.0667955 0.0350799 -1.51788e-18 0.067732 0.0350799
-1.51788e-18 0.0686684 0.0350799 -1.51788e-18 0.0696049 0.0350799 -1.51788e-18 0.0705414 0.0350799 -1.51788e-18
0.0714779 0.0350799 -1.51788e-18 0.0724143 0.0350799 -1.51788e-18 0.0733508 0.0350799 -1.51788e-18 0.0742873
0.0350799 -1.51788e-18 0.0752237 0.0350799 -1.51788e-18 0.0761602 0.0350799 -1.51788e-18 0.0770967 0.0350799
-1.51788e-18 0.0780332 0.0350799 -1.51788e-18 0.0789696 0.0350799 -1.51788e-18 0.0621132 0.0350799 0.000936471
0.0630496 0.0350799 0.000936471 0.0639861 0.0350799 0.000936471 0.0649226 0.0350799 0.000936471 0.065859
0.0350799 0.000936471 0.0667955 0.0350799 0.000936471 0.067732 0.0350799 0.000936471 0.0686684 0.0350799
0.000936471 0.0696049 0.0350799 0.000936471 0.0705414 0.0350799 0.000936471 0.0714779 0.0350799 0.000936471
0.0724143 0.0350799 0.000936471 0.0733508 0.0350799 0.000936471 0.0742873 0.0350799 0.000936471 0.0752237
0.0350799 0.000936471 0.0761602 0.0350799 0.000936471 0.0770967 0.0350799 0.000936471 0.0780332 0.0350799
0.000936471 0.0789696 0.0350799 0.000936471 0.0621132 0.0350799 0.00187294 0.0630496 0.0350799 0.00187294
0.0639861 0.0350799 0.00187294 0.0649226 0.0350799 0.00187294 0.065859 0.0350799 0.00187294 0.0667955
0.0350799 0.00187294 0.067732 0.0350799 0.00187294 0.0686684 0.0350799 0.00187294 0.0696049 0.0350799
0.00187294 0.0705414 0.0350799 0.00187294 0.0714779 0.0350799 0.00187294 0.0724143 0.0350799 0.00187294
0.0733508 0.0350799 0.00187294 0.0742873 0.0350799 0.00187294 0.0752237 0.0350799 0.00187294 0.0761602
[...]
CELL_DATA 912
FIELD attributes 0
