# vtk DataFile Version 2.0
wall-filter
ASCII
DATASET POLYDATA
POINTS 1043 float
0.0705414 0.0275799 -0.014 0.0705414 0.0286308 -0.014
0.0717633 0.0286308 -0.0138988 0.0717633 0.0275799 -0.0138869
0.0717633 0.0275799 -0.0130528 0.0705414 0.0275799 -0.0131094
0.0803164 0.0275799 -0.0048875 0.0819657 0.0275799 -0.0048875
0.081752 0.0275799 -0.00366563 0.0803164 0.0275799 -0.00366563
0.0803761 0.0330799 -0.0048875 0.0808981 0.0330799 -0.00366563
0.0815383 0.0330799 -0.00366563 0.0815383 0.0330799 -0.0048875
0.0656539 0.0275799 0.009775 0.0668758 0.0275799 0.009775
0.0668758 0.0275799 0.0112151 0.0656539 0.0275799 0.0114333
0.0656539 0.0330799 0.00985253 0.0656539 0.0330799 0.0109969
0.0668758 0.0330799 0.0109969 0.0668758 0.0330799 0.010355
0.0803904 0.0330799 0.0048875 0.0803164 0.0330799 0.00610938
0.0815383 0.0330799 0.00610938 0.0815383 0.0330799 0.0048875
0.0754289 0.0330799 0.00984204 0.0754289 0.0330799 0.0109969
0.0766508 0.0330799 0.0109969 0.0766508 0.0330799 0.009775
0.0632101 0.0321188 -0.0118762 0.0632101 0.0330799 -0.0119014
0.064432 0.0330799 -0.0125617 0.064432 0.0321188 -0.0125556
0.0632101 0.0330799 -0.0108932 0.064432 0.0330799 -0.0109969
0.0693195 0.0275799 -0.0138869 0.0693195 0.0286308 -0.0138988
0.0656539 0.0275799 -0.0130916 0.0668758 0.0275799 -0.0126552
0.0668758 0.0275799 -0.0112151 0.0656539 0.0275799 -0.0114333
0.064432 0.0309003 -0.0125556 0.0632101 0.0309003 -0.0118762
0.0693195 0.0275799 -0.0130528 0.0656539 0.0330799 -0.0109969
0.0656539 0.0330799 -0.0122188 0.0632101 0.0296818 -0.0118762
0.064432 0.0296818 -0.0125556 0.0668758 0.0330799 -0.0109969
0.0668758 0.0330799 -0.0122188 0.064432 0.0275799 -0.0111294
0.064432 0.0275799 -0.0124839 0.0680976 0.0330799 -0.010724
0.0680976 0.0330799 -0.0122188 0.064432 0.0286106 -0.0125556
0.0632101 0.0286308 -0.0118762 0.0693195 0.0330799 -0.0109227
0.0693195 0.0330799 -0.0122188 0.0632101 0.0275799 -0.0118762
0.0632101 0.0275799 -0.0108256 0.0680976 0.0275799 -0.0137738
0.0680976 0.0286308 -0.0137738 0.0680976 0.0275799 -0.0129963
0.0574678 0.0275799 -0.0048875 0.0591171 0.0275799 -0.0048875
0.0593308 0.0275799 -0.00366563 0.0578952 0.0275799 -0.00366563
0.0680976 0.0275799 -0.009775 0.0680976 0.0275799 -0.0109969
0.0680976 0.0275799 -0.0122188 0.0693195 0.0275799 -0.0122188
0.0705414 0.0275799 -0.0122188 0.0705414 0.0275799 -0.009775
0.0580562 0.0275799 -0.00610938 0.0594113 0.0275799 -0.00610938
0.0586446 0.0275799 -0.00733125 0.0579834 0.0286107 -0.00610938
0.0586446 0.0286308 -0.00733125 0.0597055 0.0275799 -0.00733125
0.0568041 0.0275799 -0.00244375 0.0566966 0.0275799 -0.00122187
0.0566002 0.0286308 -0.00122187 0.0568041 0.0286308 -0.00244375
0.0632101 0.0330799 -0.009775 0.064432 0.0330799 -0.009775
0.0575634 0.0275799 -0.00244375 0.0575096 0.0275799 -0.00122187
0.0583226 0.0275799 0 0.0583226 0.0275799 -0.00122187
0.0583226 0.0275799 -0.00244375 0.0595445 0.0275799 -0.00244375
0.0607664 0.0275799 -0.00244375 0.0607664 0.0275799 0
0.0632101 0.0275799 -0.009775 0.0607664 0.0275799 -0.00996536
0.0586446 0.0296818 -0.00733125 0.0579834 0.0296818 -0.00610938
0.0729851 0.0275799 -0.0122188 0.074207 0.0275799 -0.0126552
0.074207 0.0275799 -0.0112151 0.0729851 0.0275799 -0.0109969
0.0607664 0.0275799 -0.00733125 0.0586446 0.0321188 -0.00733125
0.0579834 0.0321188 -0.00610938 0.0579663 0.0330799 -0.00610938
0.0586207 0.0330799 -0.00733125 0.0595445 0.0330799 -0.00610938
0.059642 0.0330799 -0.00733125 0.0586446 0.0309003 -0.00733125
0.0579834 0.0309003 -0.00610938 0.0583226 0.0330799 -0.0048875
0.0595445 0.0330799 -0.0048875 0.0583226 0.0330799 -0.00366563
0.0595445 0.0330799 -0.00366563 0.0717633 0.0275799 -0.0122188
0.0729851 0.0275799 -0.009775 0.0583226 0.0330799 -0.00244375
0.059814 0.0330799 -0.00244375 0.0583226 0.0330799 -0.00122187
0.0596059 0.0330799 -0.00122187 0.0607664 0.0330799 -0.00610938
0.0607664 0.0330799 -0.00733125 0.0705414 0.0275799 -0.00733125
0.0680976 0.0275799 -0.00733125 0.0632101 0.0330799 -0.00818675
0.064432 0.0330799 -0.00914546 0.0705414 0.0330799 -0.011
0.0705414 0.0330799 -0.0122188 0.0614023 0.0330799 -0.00610938
0.06247 0.0330799 -0.00744791 0.0803164 0.0275799 -0.00610938
0.0816715 0.0275799 -0.00610938 0.0632101 0.0275799 -0.00244375
0.0632101 0.0275799 0 0.0656539 0.0345558 -0.00964951
0.0656539 0.0357743 -0.0092077 0.0668758 0.0357743 -0.00976002
0.0668758 0.0345558 -0.0102018 0.0656539 0.0275799 -0.009775
0.0668758 0.0275799 -0.009775 0.0656539 0.0275799 -0.00733125
0.0803164 0.0330799 -0.00610938 0.0815383 0.0330799 -0.00610938
0.0827601 0.0330799 -0.00366563 0.0827601 0.0330799 -0.0048875
0.0609037 0.0345558 -0.0048875 0.0603625 0.0345558 -0.00366563
0.0607836 0.0357743 -0.00366563 0.0613546 0.0357743 -0.0048875
0.0607664 0.0275799 -0.0048875 0.0632101 0.0275799 -0.0048875
0.0607664 0.0275799 -0.00366563 0.0754289 0.0275799 -0.0114333
0.0754289 0.0275799 -0.0130916 0.0632101 0.0275799 -0.00733125
0.064432 0.0275799 -0.009775 0.0607664 0.0275799 -0.00610938
0.0656539 0.0275799 -0.0048875 0.0680976 0.0275799 -0.0048875
0.0705414 0.0275799 -0.0048875 0.0729851 0.0275799 -0.00733125
0.0656539 0.0275799 -0.00244375 0.0680976 0.0275799 -0.00244375
0.0778726 0.0275799 -0.0048875 0.0778726 0.0275799 -0.00733125
0.0803164 0.0275799 -0.00733125 0.0656539 0.0275799 0
0.0705414 0.0275799 -0.00244375 0.0680976 0.0275799 0
0.0803164 0.0275799 -0.00244375 0.0778726 0.0275799 -0.00244375
0.0696095 0.0275799 -0.000960776 0.0754289 0.0285944 -0.0130916
0.0766508 0.0286106 -0.0125556 0.0766508 0.0275799 -0.0124839
0.0766508 0.0275799 -0.0111294 0.0729851 0.0275799 -0.0048875
0.0717633 0.0330799 -0.0109337 0.0717633 0.0330799 -0.0122188
0.0729851 0.0330799 -0.0107259 0.0729851 0.0330799 -0.0122188
0.074207 0.0330799 -0.0109969 0.074207 0.0330799 -0.0122188
0.064432 0.0330799 0.009775 0.064432 0.0330799 0.0109969
0.0729851 0.0275799 -0.00244375 0.0754289 0.0330799 -0.0109969
0.0754289 0.0330799 -0.0122188 0.0754289 0.0275799 -0.00733125
0.074207 0.0275799 -0.009775 0.0754289 0.0275799 -0.009775
0.0766508 0.0330799 -0.0109969 0.0766508 0.0330799 -0.0125617
0.0715524 0.0275799 -0.000960776 0.0565892 0.0286308 0
0.0565892 0.0275799 0 0.0754289 0.0275799 -0.0048875
0.0574559 0.0275799 0 0.0607664 0.0275799 0.00244375
0.0595445 0.0275799 0.00244375 0.0583226 0.0275799 0.00244375
0.0583226 0.0275799 0.00122187 0.0766508 0.0275799 -0.009775
0.0778726 0.0275799 -0.009775 0.064432 0.0275799 0.009775
0.064432 0.0275799 0.0111294 0.0803164 0.0275799 -0.00996536
0.0754289 0.0275799 -0.00244375 0.0656539 0.0330799 -0.0131206
0.0754289 0.0275799 0 0.0656539 0.0330799 0.0122188
0.0668758 0.0330799 0.0122188 0.0778726 0.0275799 0
0.0803164 0.0275799 0 0.0668758 0.0330799 -0.0103637
0.0778726 0.0386079 -0.00244375 0.0778726 0.0387378 -0.00122187
0.0790945 0.0380114 -0.00122187 0.0790945 0.037793 -0.00244375
0.0813773 0.0275799 -0.00733125 0.0583226 0.0330799 0
0.0595463 0.0330799 0 0.0803164 0.0330799 -0.00733125
0.0814408 0.0330799 -0.00733125 0.0632101 0.0275799 0.00244375
0.0656539 0.0330799 -0.00984101 0.0840426 0.0330799 -0.00366563
0.0836666 0.0330799 -0.0048875 0.083615 0.0321188 -0.0048875
0.0840344 0.0321188 -0.00366563 0.083615 0.0309003 -0.0048875
0.0840344 0.0309003 -0.00366563 0.083615 0.0296818 -0.0048875
0.0840344 0.0296818 -0.00366563 0.0827601 0.0330799 -0.00244375
0.084326 0.0330799 -0.00244375 0.0842787 0.0321188 -0.00244375
0.0815383 0.0275799 -0.00244375 0.0827601 0.0275799 -0.00244375
0.0827601 0.0275799 -0.00122187 0.0827601 0.0275799 0
0.0827601 0.0330799 -0.00122187 0.0844851 0.0330799 -0.00122187
0.0842787 0.0309003 -0.00244375 0.0844826 0.0321188 -0.00122187
0.0842787 0.0296818 -0.00244375 0.0574162 0.0330799 -0.0048875
0.0656539 0.0275799 0.00244375 0.0844826 0.0309003 -0.00122187
0.0844826 0.0296818 -0.00122187 0.0606871 0.0330799 -0.0048875
0.0680976 0.0275799 0.00244375 0.0601735 0.0330799 -0.00366563
0.0696095 0.0275799 0.00100055 0.0593308 0.0275799 0.00366563
0.0578952 0.0275799 0.00366563 0.0632101 0.0275799 0.009775
0.0632101 0.0275799 0.00733125 0.0656539 0.0275799 0.00733125
0.0680976 0.0275799 0.00733125 0.0680976 0.0275799 0.009775
0.0835194 0.0275799 -0.00244375 0.0835731 0.0275799 -0.00122187
0.0566966 0.0275799 0.00122187 0.0566002 0.0286308 0.00122187
0.0574678 0.0275799 0.0048875 0.0591171 0.0275799 0.0048875
0.0680976 0.0357743 -0.0101141 0.0575096 0.0275799 0.00122187
0.0580562 0.0275799 0.00610938 0.0579834 0.0286107 0.00610938
0.0574678 0.0285953 0.0048875 0.0594113 0.0275799 0.00610938
0.0604094 0.0357743 -0.00244375 0.0812669 0.0330799 -0.00244375
0.0583226 0.0330799 0.00122187 0.0596128 0.0330799 0.00122187
0.0583226 0.0330799 0.00244375 0.0598236 0.0330799 0.00244375
0.0583226 0.0330799 0.00366563 0.0595445 0.0330799 0.00366563
0.0583226 0.0330799 0.0048875 0.0595445 0.0330799 0.0048875
0.0579663 0.0330799 0.00610938 0.0595445 0.0330799 0.00610938
0.0680976 0.0386072 0.00733125 0.0680976 0.037806 0.00855312
0.0693195 0.0380135 0.00855312 0.0693195 0.0387356 0.00733125
0.0607664 0.0275799 0.0048875 0.0607664 0.0275799 0.00366563
0.0632101 0.0275799 0.0048875 0.0754289 0.0275799 0.00244375
0.0729851 0.0275799 0.00244375 0.0656539 0.0321188 -0.0130916
0.0656539 0.0309003 -0.0130916 0.0656539 0.0296818 -0.0130916
0.0632101 0.0330799 0.009775 0.0632101 0.0330799 0.0108932
0.0778726 0.0275799 0.00244375 0.0803164 0.0275799 0.00244375
0.0796827 0.0330799 -0.00610938 0.0656539 0.0275799 0.0048875
0.0693195 0.0296818 -0.0138988 0.0705414 0.0296818 -0.014
0.0668758 0.0330799 -0.0134686 0.0680976 0.0330799 -0.013784
0.0680976 0.0275799 0.0048875 0.0693195 0.0330799 -0.0138988
0.0705414 0.0275799 0.0048875 0.0607664 0.0275799 0.00733125
0.0607664 0.0275799 0.00610938 0.0778726 0.0387804 0
0.0790945 0.0381036 0 0.0766508 0.0296818 -0.0125556
0.0754289 0.0330799 -0.0131206 0.0607664 0.0275799 0.00996536
0.074207 0.0330799 -0.0103697 0.0680976 0.0296818 -0.0137738
0.0705414 0.0275799 0.00733125 0.0680976 0.0345558 -0.0105301
0.0693195 0.0345558 -0.0107411 0.0705414 0.0275799 0.009775
[...]
CELL_DATA 1205
FIELD attributes 1
patchID 1 1205 int
2 2 2 2 2 2
2 2 2 2 2 2
2 2 2 2 2 2
2 2 2 2 2 2
2 2 2 2 2 2
2 2 2 2 2 2
2 2 2 2 2 2
2 2 2 2 2 2
2 2 2 2 2 2
2 2 2 2 2 2
2 2 2 2 2 2
2 2 2 2 2 2
2 2 2 2 2 2
2 2 2 2 2 2
2 2 2 2 2 2
2 2 2 2 2 2
2 2 2 2 2 2
2 2 2 2 2 2
2 2 2 2 2 2
2 2 2 2 2 2
2 2 2 2 2 2
2 2 2 2 2 2
2 2 2 2 2 2
2 2 2 2 2 2
2 2 2 2 2 2
2 2 2 2 2 2
2 2 2 2 2 2
2 2 2 2 2 2
2 2 2 2 2 2
2 2 2 2 2 2
2 2 2 2 2 2
2 2 2 2 2 2
2 2 2 2 2 2
2 2 2 2 2 2
2 2 2 2 2 2
2 2 2 2 2 2
2 2 2 2 2 2
2 2 2 2 2 2
2 2 2 2 2 2
2 2 2 2 2 2
2 2 2 2 2 2
2 2 2 2 2 2
2 2 2 2 2 2
2 2 2 2 2 2
2 2 2 2 2 2
2 2 2 2 2 2
2 2 2 2 2 2
2 2 2 2 2 2
2 2 2 2 2 2
2 2 2 2 2 2
2 2 2 2 2 2
2 2 2 2 2 2
2 2 2 2 2 2
2 2 2 2 2 2
2 2 2 2 2 2
2 2 2 2 2 2
2 2 2 2 2 2
2 2 2 2 2 2
2 2 2 2 2 2
2 2 2 2 2 2
2 2 2 2 2 2
2 2 2 2 2 2
2 2 2 2 2 2
2 2 2 2 2 2
2 2 2 2 2 2
2 2 2 2 2 2
2 2 2 2 2 2
2 2 2 2 2 2
2 2 2 2 2 2
2 2 2 2 2 2
2 2 2 2 2 2
2 2 2 2 2 2
2 2 2 2 2 2
2 2 2 2 2 2
2 2 2 2 2 2
2 2 2 2 2 2
2 2 2 2 2 2
2 2 2 2 2 2
2 2 2 2 2 2
2 2 2 2 2 2
2 2 2 2 2 2
2 2 2 2 2 2
2 2 2 2 2 2
2 2 2 2 2 2
2 2 2 2 2 2
2 2 2 2 2 2
2 2 2 2 2 2
2 2 2 2 2 2
2 2 2 2 2 2
2 2 2 2 2 2
2 2 2 2 2 2
2 2 2 2 2 2
2 2 2 2 2 2
2 2 2 2 2 2
2 2 2 2 2 2
2 2 2 2 2 2
2 2 2 2 2 2
2 2 2 2 2 2
2 2 2 2 2 2
2 2 2 2 2 2
2 2 2 2 2 2
2 2 2 2 2 2
2 2 2 2 2 2
2 2 2 2 2 2
2 2 2 2 2 2
2 2 2 2 2 2
2 2 2 2 2 2
2 2 2 2 2 2
2 2 2 2 2 2
2 2 2 2 2 2
2 2 2 2 2 2
2 2 2 2 2 2
2 2 2 2 2 2
2 2 2 2 2 2
2 2 2 2 2 2
2 2 2 2 2 2
2 2 2 2 2 2
2 2 2 2 2 2
2 2 2 2 2 2
2 2 2 2 2 2
2 2 2 2 2 2
2 2 2 2 2 2
2 2 2 2 2 2
2 2 2 2 2 2
2 2 2 2 2 2
2 2 2 2 2 2
2 2 2 2 2 2
2 2 2 2 2 2
2 2 2 2 2 2
2 2 2 2 2 2
2 2 2 2 2 2
2 2 2 2 2 2
2 2 2 2 2 2
2 2 2 2 2 2
2 2 2 2 2 2
2 2 2 2 2 2
2 2 2 2 2 2
2 2 2 2 2 2
2 2 2 2 2 2
2 2 2 2 2 2
2 2 2 2 2 2
2 2 2 2 2 2
2 2 2 2 2 2
2 2 2 2 2 2
2 2 2 2 2 2
2 2 2 2 2 2
2 2 2 2 2 2
2 2 2 2 2 2
2 2 2 2 2 2
2 2 2 2 2 2
2 2 2 2 2 2
2 2 2 2 2 2
2 2 2 2 2 2
2 2 2 2 2 2
2 2 2 2 2 2
2 2 2 2 2 2
2 2 2 2 2 2
2 2 2 2 2 2
2 2 2 2 2 2
2 2 2 2 2 2
2 2 2 2 2 2
2 2 2 2 2 2
2 2 2 2 2 2
2 2 2 2 2 2
2 2 2 2 2 2
2 2 2 2 2 2
2 2 2 2 2 2
2 2 2 2 2 2
2 2 2 2 2 2
2 2 2 2 2 2
2 2 2 2 2 2
2 2 2 2 2 2
2 2 2 2 2 2
2 2 2 2 2 2
2 2 2 2 2 2
2 2 2 2 2 2
2 2 2 2 2 2
2 2 2 2 2 2
2 2 2 2 2 2
2 2 2 2 2 2
2 2 2 2 2 2
2 2 2 2 2 2
2 2 2 2 2 2
2 2 2 2 2 2
2 2 2 2 2 2
2 2 2 2 2 2
2 2 2 2 2 2
2 2 2 2 2 2
2 2 2 2 2 2
2 2 2 2 2 2
2 2 2 2 2 2
2 2 2 2 2 2
2 2 2 2 2 2
2 2 2 2 2 2
2 2 2 2 2 2
2 2 2 2 2 2
2 2 2 2 2 2
2 2 2 2 2 2
2 2 2 2 2 2
2 2 2 2 2 2
2 2 2 2 2
POINT_DATA 1043
FIELD attributes 0
